  60   60
1 1
    15.493318999999993    -0.227183500000000     3.808027999999998
    -0.227205000000000     3.602810000000000     0.170295000000000
     3.808966000000001     0.170395500000000    10.478482000000001
1 2
     0.820280000000000     0.002375000000000    -0.242060500000000
    -0.002405000000000     0.161662000000000    -0.002473000000000
     0.242050500000000    -0.002393000000000    -0.663954500000000
1 3
    -0.416063000000000    -0.006402000000000     0.014795500000000
     0.006426500000000     0.091014500000000    -0.000751000000000
     0.014812500000000     0.000690500000000    -0.070990500000000
1 4
    -0.067779000000000     0.102004000000000    -0.218237000000000
     0.033364000000000    -0.116761500000000     0.119645000000000
    -0.049657500000000     0.074545500000000    -0.161263500000000
1 5
     0.172918500000000     0.168295500000000    -0.033511500000000
     0.019359000000000    -0.056945500000000     0.088108000000000
     0.033951500000000     0.105008000000000    -0.118243500000000
1 6
     0.215870000000000    -0.163467000000000    -0.054897000000000
    -0.010001000000000    -0.085911000000000    -0.052830000000000
     0.010505500000000    -0.136376000000000    -0.139496500000000
1 7
    -0.064584000000000    -0.102665000000000    -0.212811500000000
    -0.029943500000000    -0.109454500000000    -0.103485500000000
    -0.041756000000000    -0.082077000000000    -0.156127500000000
1 8
    -0.156108500000000    -0.212836000000000    -0.103457500000000
    -0.041681000000000    -0.064605500000000    -0.029945000000000
    -0.082058000000000    -0.102671500000000    -0.109536500000000
1 9
    -0.085907000000000     0.136362500000000     0.163462500000000
     0.052835500000000    -0.139546500000000    -0.054874500000000
     0.009945000000000     0.010510500000000     0.215884500000000
1 10
    -0.056964000000000    -0.105000000000000     0.168290500000000
    -0.088111500000000    -0.118163500000000     0.033544000000000
     0.019425500000000    -0.033963500000000     0.172926500000000
1 11
    -0.161245500000000     0.218247500000000    -0.119674000000000
     0.049727500000000    -0.067760500000000     0.033366000000000
    -0.074529000000000     0.102025000000000    -0.116693000000000
1 12
    -1.365583499999999     0.026464000000000     0.059371000000000
     0.026480000000000     0.041884000000000    -0.002787500000000
    -0.059336500000000     0.002854500000000     0.113870500000000
1 13
     0.183022000000000    -0.015288500000000     0.102827000000000
    -0.015256000000000    -0.186909500000000     0.030667000000000
     0.102850000000000     0.030746000000000     0.010032000000000
1 14
     0.173859000000000     0.010041000000000    -0.092215500000000
    -0.010034000000000    -0.045535500000000     0.003550000000000
     0.092220000000000     0.003467500000000    -0.102318000000000
1 15
     0.183978500000000    -0.003648000000000    -0.214704000000000
    -0.007221000000000     0.154506000000000    -0.000594500000000
    -0.128215000000000     0.004732500000000    -0.446921500000000
1 16
    -0.221898500000000    -0.003813000000000    -0.096805500000000
     0.003786000000000    -0.041355000000000     0.005739500000000
    -0.096820500000000    -0.005657000000000    -0.086265500000000
1 17
    -0.332908000000000    -0.680466500000000    -0.332763500000000
    -0.619362500000000    -0.432625000000000    -0.372578500000000
    -0.469670500000000    -0.437010500000000     0.008451500000000
1 18
    -0.421427000000000     0.799469500000000    -0.411106000000000
     0.727943500000000    -0.553793500000000     0.483518500000000
    -0.545826500000000     0.492523000000000    -0.042287500000000
1 19
     0.068286500000000    -0.009291500000000     0.084200000000000
    -0.000818500000000     0.018053000000000    -0.080099000000000
     0.086358500000000    -0.082970000000000    -0.277630000000000
1 20
    -0.277656500000000     0.084198500000000    -0.080128000000000
     0.086260000000000     0.068331500000000    -0.000817000000000
    -0.082957500000000    -0.009239500000000     0.018114500000000
1 21
    -0.553819000000000    -0.492532500000000    -0.799517500000000
    -0.483514500000000    -0.042236500000000    -0.411130500000000
    -0.727852500000000    -0.545836500000000    -0.421428500000000
1 22
    -0.432604000000000     0.437022000000000    -0.680508000000000
     0.372588500000000     0.008361000000000     0.332736500000000
    -0.619440500000000     0.469693000000000    -0.332933000000000
1 23
    -0.269906000000000    -0.095591000000000    -0.075839000000000
    -0.070560000000000     0.069001000000000     0.001695000000000
    -0.084958500000000     0.007108500000000     0.016602000000000
1 24
    -0.220192500000000     0.005908500000000     0.090623500000000
     0.005883500000000    -0.039878000000000     0.002796500000000
    -0.090635000000000    -0.002882000000000     0.042323000000000
1 25
    -0.118150000000000     0.004511500000000    -0.006426500000000
     0.002116000000000    -0.034663000000000    -0.003435000000000
    -0.058348000000000    -0.002700000000000     0.019105000000000
1 26
    -0.417594500000000     0.223844500000000     0.763309000000000
     0.460064500000000     0.161969000000000    -0.409540000000000
     0.480870500000000    -0.198881500000000     0.126663500000000
1 27
     0.030173000000000    -0.002202500000000    -0.014758000000000
     0.003448500000000    -0.058884500000000    -0.004154500000000
    -0.017338000000000    -0.003523500000000    -0.021997000000000
1 28
    -0.474062500000000    -0.239368500000000     0.803115000000000
    -0.473961000000000     0.168855500000000     0.411594000000000
     0.518372000000000     0.209338000000000     0.113641000000000
1 29
     0.026848000000000    -0.000853500000000    -0.056404500000000
     0.004774500000000    -0.037359500000000    -0.000455500000000
    -0.004399500000000    -0.004798000000000    -0.083144000000000
1 30
    -0.099986000000000     0.027332500000000     0.006722000000000
     0.001572500000000    -0.308880500000000    -0.000919500000000
    -0.100420500000000     0.007389000000000     0.030236500000000
1 31
    -0.124729500000000     0.007797500000000    -0.119089000000000
     0.000570500000000     0.112890500000000    -0.001488500000000
    -0.092468500000000     0.007564500000000    -0.125074000000000
1 32
    -0.011713500000000    -0.025680000000000     0.001970500000000
    -0.011124500000000    -0.055448000000000     0.010139500000000
     0.006484500000000    -0.018674000000000    -0.035800500000000
1 33
    -1.937435499999999    -0.014249500000000    -0.663590500000000
     0.018053500000000     0.169523500000000     0.003256500000000
    -0.028255500000000    -0.000346000000000     0.201203500000000
1 34
    -0.028022500000000     0.062355500000000     0.027762500000000
     0.008526000000000    -0.082313000000000    -0.008281000000000
     0.025850000000000    -0.043922000000000    -0.055811500000000
1 35
    -0.207259000000000    -0.007623000000000    -0.492141500000000
    -0.016741500000000     0.029402500000000    -0.009920000000000
    -0.429021500000000    -0.001541500000000    -0.347606000000000
1 36
     0.069019500000000     0.007156500000000     0.095588500000000
     0.001688500000000     0.016691500000000     0.075879000000000
     0.070490000000000     0.084981000000000    -0.269900500000000
1 37
    -0.110507000000000    -0.017152500000000     0.082395500000000
     0.010582500000000     0.004834500000000    -0.037297500000000
    -0.009238000000000    -0.090642000000000     0.123713000000000
1 38
     0.102334500000000    -0.033172000000000     0.016304000000000
    -0.008505500000000     0.002604500000000     0.013899500000000
     0.006429000000000     0.010541500000000     0.047690000000000
1 39
    -0.275492500000000    -0.117157500000000    -0.080281000000000
    -0.081610500000000    -0.834486000000000     0.177213000000000
    -0.077959500000000     0.201923500000000    -0.214865000000000
1 40
     0.200635000000000     0.002346000000000    -0.060140000000000
     0.012828000000000     0.006821500000000     0.004720500000000
     0.071400000000000     0.005547000000000    -0.066926000000000
1 41
     0.147033500000000    -0.078594000000000    -0.030381500000000
    -0.030667000000000     0.042261500000000    -0.004720000000000
     0.050915500000000    -0.008598000000000    -0.086820000000000
1 42
    -0.243449000000000     0.090466500000000    -0.061814000000000
     0.065320000000000     0.364359000000000     0.025560500000000
    -0.054287500000000     0.065643500000000    -0.176339000000000
1 43
     0.103348000000000     0.070292000000000    -0.017539500000000
     0.010012000000000     0.029662500000000    -0.020050500000000
    -0.004395500000000    -0.029430500000000     0.035444500000000
1 44
    -0.157075000000000    -0.035475000000000     0.024410000000000
    -0.009935000000000     0.052455500000000     0.049838000000000
    -0.039444000000000     0.066591000000000     0.059089500000000
1 45
     0.187791500000000     0.055874000000000    -0.104479000000000
     0.003245500000000    -0.020364000000000    -0.008079000000000
     0.032499500000000    -0.002401000000000    -0.039266500000000
1 46
    -0.447216000000000     0.153654500000000     0.164386500000000
     0.243339500000000    -0.312684000000000    -0.305099000000000
     0.202271000000000    -0.208945000000000    -0.471706000000000
1 47
     0.098480500000000     0.017654000000000     0.028960500000000
    -0.008553500000000    -0.012501000000000     0.002596500000000
     0.015069000000000     0.005853000000000     0.055314000000000
1 48
    -0.054236500000000     0.021470500000000     0.069045000000000
     0.005411000000000    -0.023047000000000     0.003463500000000
     0.021267500000000     0.042992500000000     0.148226000000000
1 49
     1.371167999999999     0.017269500000000     0.874502500000000
    -0.014044500000000    -0.182195500000000    -0.002560500000000
     0.174207000000000    -0.001422500000000     0.052548000000000
1 50
    -0.092449500000000    -0.121331500000000     0.744614500000000
    -0.041220500000000    -0.130628000000000    -0.232133500000000
     0.089879000000000    -0.163707500000000     0.787306000000000
1 51
     0.051317500000000    -0.029852500000000    -0.197762500000000
     0.045708500000000     0.247577000000000    -0.009518000000000
    -0.061731500000000     0.022601000000000    -0.101843500000000
1 52
    -0.082353500000000     0.113270500000000     0.776679500000000
     0.022336500000000    -0.112172000000000     0.236143000000000
     0.109962000000000     0.138822500000000     0.807613000000000
1 53
     0.030408000000000    -0.014235000000000     0.160795000000000
     0.007653000000000     0.201765500000000    -0.001430000000000
     0.004008000000000     0.016983000000000     0.208891000000000
1 54
    -3.950088499999998    -0.027236500000000    -2.889251999999999
    -0.019067000000000    -1.007400500000000    -0.104194000000000
    -3.836072000000001    -0.113603500000000    -6.935189000000001
1 55
     0.170280500000000    -0.004153500000000     0.017582500000000
    -0.007688500000000     0.128977500000000    -0.006135500000000
     0.100038000000000     0.005388000000000     0.055415000000000
1 56
     0.613184500000000     0.343076500000000     0.000986500000000
     0.299902500000000     0.352458500000000    -0.000516500000000
     0.465163500000000     0.215566000000000    -0.102617500000000
1 57
    -6.494196999999997     0.069447000000000     0.505212500000000
     0.069578500000000    -1.098088500000000    -0.037011000000000
     1.487063000000000    -0.030025500000000    -1.974759000000000
1 58
     0.649318000000000    -0.383238500000000     0.009108000000000
    -0.322057500000000     0.370447000000000     0.023544000000000
     0.486767000000000    -0.226175000000000    -0.097255500000000
1 59
    -0.498592000000000    -0.011998000000000    -1.114673499999999
    -0.004745000000000    -0.476506000000000     0.013396000000000
    -0.798785000000000    -0.013073000000000     0.397090500000000
1 60
    -0.233620000000000     0.003550500000000     0.011918500000000
    -0.025351000000000     0.209921500000000    -0.037601500000000
    -0.074209500000000     0.021462000000000     0.107134000000000
2 1
     0.820280000000000    -0.002375000000000     0.242060500000000
     0.002405000000000     0.161662000000000    -0.002473000000000
    -0.242050500000000    -0.002393000000000    -0.663954500000000
2 2
    15.493318999999993     0.227183500000000    -3.808027999999998
     0.227205000000000     3.602810000000000     0.170295000000000
    -3.808966000000001     0.170395500000000    10.478482000000001
2 3
    -1.365583499999999    -0.026464000000000    -0.059371000000000
    -0.026480000000000     0.041884000000000    -0.002787500000000
     0.059336500000000     0.002854500000000     0.113870500000000
2 4
    -0.056964000000000     0.105000000000000    -0.168290500000000
     0.088111500000000    -0.118163500000000     0.033544000000000
    -0.019425500000000    -0.033963500000000     0.172926500000000
2 5
     0.215870000000000     0.163467000000000     0.054897000000000
     0.010001000000000    -0.085911000000000    -0.052830000000000
    -0.010505500000000    -0.136376000000000    -0.139496500000000
2 6
     0.172918500000000    -0.168295500000000     0.033511500000000
    -0.019359000000000    -0.056945500000000     0.088108000000000
    -0.033951500000000     0.105008000000000    -0.118243500000000
2 7
    -0.085907000000000    -0.136362500000000    -0.163462500000000
    -0.052835500000000    -0.139546500000000    -0.054874500000000
    -0.009945000000000     0.010510500000000     0.215884500000000
2 8
    -0.161245500000000    -0.218247500000000     0.119674000000000
    -0.049727500000000    -0.067760500000000     0.033366000000000
     0.074529000000000     0.102025000000000    -0.116693000000000
2 9
    -0.064584000000000     0.102665000000000     0.212811500000000
     0.029943500000000    -0.109454500000000    -0.103485500000000
     0.041756000000000    -0.082077000000000    -0.156127500000000
2 10
    -0.067779000000000    -0.102004000000000     0.218237000000000
    -0.033364000000000    -0.116761500000000     0.119645000000000
     0.049657500000000     0.074545500000000    -0.161263500000000
2 11
    -0.156108500000000     0.212836000000000     0.103457500000000
     0.041681000000000    -0.064605500000000    -0.029945000000000
     0.082058000000000    -0.102671500000000    -0.109536500000000
2 12
    -0.416063000000000     0.006402000000000    -0.014795500000000
    -0.006426500000000     0.091014500000000    -0.000751000000000
    -0.014812500000000     0.000690500000000    -0.070990500000000
2 13
     0.173859000000000    -0.010041000000000     0.092215500000000
     0.010034000000000    -0.045535500000000     0.003550000000000
    -0.092220000000000     0.003467500000000    -0.102318000000000
2 14
     0.183022000000000     0.015288500000000    -0.102827000000000
     0.015256000000000    -0.186909500000000     0.030667000000000
    -0.102850000000000     0.030746000000000     0.010032000000000
2 15
     0.183978500000000     0.003648000000000     0.214704000000000
     0.007221000000000     0.154506000000000    -0.000594500000000
     0.128215000000000     0.004732500000000    -0.446921500000000
2 16
    -0.220192500000000    -0.005908500000000    -0.090623500000000
    -0.005883500000000    -0.039878000000000     0.002796500000000
     0.090635000000000    -0.002882000000000     0.042323000000000
2 17
    -0.421427000000000    -0.799469500000000     0.411106000000000
    -0.727943500000000    -0.553793500000000     0.483518500000000
     0.545826500000000     0.492523000000000    -0.042287500000000
2 18
    -0.332908000000000     0.680466500000000     0.332763500000000
     0.619362500000000    -0.432625000000000    -0.372578500000000
     0.469670500000000    -0.437010500000000     0.008451500000000
2 19
    -0.553819000000000     0.492532500000000     0.799517500000000
     0.483514500000000    -0.042236500000000    -0.411130500000000
     0.727852500000000    -0.545836500000000    -0.421428500000000
2 20
    -0.269906000000000     0.095591000000000     0.075839000000000
     0.070560000000000     0.069001000000000     0.001695000000000
     0.084958500000000     0.007108500000000     0.016602000000000
2 21
     0.068286500000000     0.009291500000000    -0.084200000000000
     0.000818500000000     0.018053000000000    -0.080099000000000
    -0.086358500000000    -0.082970000000000    -0.277630000000000
2 22
     0.069019500000000    -0.007156500000000    -0.095588500000000
    -0.001688500000000     0.016691500000000     0.075879000000000
    -0.070490000000000     0.084981000000000    -0.269900500000000
2 23
    -0.277656500000000    -0.084198500000000     0.080128000000000
    -0.086260000000000     0.068331500000000    -0.000817000000000
     0.082957500000000    -0.009239500000000     0.018114500000000
2 24
    -0.221898500000000     0.003813000000000     0.096805500000000
    -0.003786000000000    -0.041355000000000     0.005739500000000
     0.096820500000000    -0.005657000000000    -0.086265500000000
2 25
    -0.118150000000000    -0.004511500000000     0.006426500000000
    -0.002116000000000    -0.034663000000000    -0.003435000000000
     0.058348000000000    -0.002700000000000     0.019105000000000
2 26
    -0.474062500000000     0.239368500000000    -0.803115000000000
     0.473961000000000     0.168855500000000     0.411594000000000
    -0.518372000000000     0.209338000000000     0.113641000000000
2 27
     0.026848000000000     0.000853500000000     0.056404500000000
    -0.004774500000000    -0.037359500000000    -0.000455500000000
     0.004399500000000    -0.004798000000000    -0.083144000000000
2 28
    -0.417594500000000    -0.223844500000000    -0.763309000000000
    -0.460064500000000     0.161969000000000    -0.409540000000000
    -0.480870500000000    -0.198881500000000     0.126663500000000
2 29
     0.030173000000000     0.002202500000000     0.014758000000000
    -0.003448500000000    -0.058884500000000    -0.004154500000000
     0.017338000000000    -0.003523500000000    -0.021997000000000
2 30
    -0.099986000000000    -0.027332500000000    -0.006722000000000
    -0.001572500000000    -0.308880500000000    -0.000919500000000
     0.100420500000000     0.007389000000000     0.030236500000000
2 31
    -0.124729500000000    -0.007797500000000     0.119089000000000
    -0.000570500000000     0.112890500000000    -0.001488500000000
     0.092468500000000     0.007564500000000    -0.125074000000000
2 32
    -0.028022500000000    -0.062355500000000    -0.027762500000000
    -0.008526000000000    -0.082313000000000    -0.008281000000000
    -0.025850000000000    -0.043922000000000    -0.055811500000000
2 33
    -0.207259000000000     0.007623000000000     0.492141500000000
     0.016741500000000     0.029402500000000    -0.009920000000000
     0.429021500000000    -0.001541500000000    -0.347606000000000
2 34
    -0.011713500000000     0.025680000000000    -0.001970500000000
     0.011124500000000    -0.055448000000000     0.010139500000000
    -0.006484500000000    -0.018674000000000    -0.035800500000000
2 35
    -1.937435499999999     0.014249500000000     0.663590500000000
    -0.018053500000000     0.169523500000000     0.003256500000000
     0.028255500000000    -0.000346000000000     0.201203500000000
2 36
    -0.432604000000000    -0.437022000000000     0.680508000000000
    -0.372588500000000     0.008361000000000     0.332736500000000
     0.619440500000000     0.469693000000000    -0.332933000000000
2 37
    -0.275492500000000     0.117157500000000     0.080281000000000
     0.081610500000000    -0.834486000000000     0.177213000000000
     0.077959500000000     0.201923500000000    -0.214865000000000
2 38
     0.200635000000000    -0.002346000000000     0.060140000000000
    -0.012828000000000     0.006821500000000     0.004720500000000
    -0.071400000000000     0.005547000000000    -0.066926000000000
2 39
    -0.110507000000000     0.017152500000000    -0.082395500000000
    -0.010582500000000     0.004834500000000    -0.037297500000000
     0.009238000000000    -0.090642000000000     0.123713000000000
2 40
     0.102334500000000     0.033172000000000    -0.016304000000000
     0.008505500000000     0.002604500000000     0.013899500000000
    -0.006429000000000     0.010541500000000     0.047690000000000
2 41
     0.103348000000000    -0.070292000000000     0.017539500000000
    -0.010012000000000     0.029662500000000    -0.020050500000000
     0.004395500000000    -0.029430500000000     0.035444500000000
2 42
    -0.157075000000000     0.035475000000000    -0.024410000000000
     0.009935000000000     0.052455500000000     0.049838000000000
     0.039444000000000     0.066591000000000     0.059089500000000
2 43
     0.147033500000000     0.078594000000000     0.030381500000000
     0.030667000000000     0.042261500000000    -0.004720000000000
    -0.050915500000000    -0.008598000000000    -0.086820000000000
2 44
    -0.243449000000000    -0.090466500000000     0.061814000000000
    -0.065320000000000     0.364359000000000     0.025560500000000
     0.054287500000000     0.065643500000000    -0.176339000000000
2 45
     0.098480500000000    -0.017654000000000    -0.028960500000000
     0.008553500000000    -0.012501000000000     0.002596500000000
    -0.015069000000000     0.005853000000000     0.055314000000000
2 46
    -0.054236500000000    -0.021470500000000    -0.069045000000000
    -0.005411000000000    -0.023047000000000     0.003463500000000
    -0.021267500000000     0.042992500000000     0.148226000000000
2 47
     0.187791500000000    -0.055874000000000     0.104479000000000
    -0.003245500000000    -0.020364000000000    -0.008079000000000
    -0.032499500000000    -0.002401000000000    -0.039266500000000
2 48
    -0.447216000000000    -0.153654500000000    -0.164386500000000
    -0.243339500000000    -0.312684000000000    -0.305099000000000
    -0.202271000000000    -0.208945000000000    -0.471706000000000
2 49
     1.371167999999999    -0.017269500000000    -0.874502500000000
     0.014044500000000    -0.182195500000000    -0.002560500000000
    -0.174207000000000    -0.001422500000000     0.052548000000000
2 50
    -0.082353500000000    -0.113270500000000    -0.776679500000000
    -0.022336500000000    -0.112172000000000     0.236143000000000
    -0.109962000000000     0.138822500000000     0.807613000000000
2 51
     0.030408000000000     0.014235000000000    -0.160795000000000
    -0.007653000000000     0.201765500000000    -0.001430000000000
    -0.004008000000000     0.016983000000000     0.208891000000000
2 52
    -0.092449500000000     0.121331500000000    -0.744614500000000
     0.041220500000000    -0.130628000000000    -0.232133500000000
    -0.089879000000000    -0.163707500000000     0.787306000000000
2 53
     0.051317500000000     0.029852500000000     0.197762500000000
    -0.045708500000000     0.247577000000000    -0.009518000000000
     0.061731500000000     0.022601000000000    -0.101843500000000
2 54
    -3.950088499999998     0.027236500000000     2.889251999999999
     0.019067000000000    -1.007400500000000    -0.104194000000000
     3.836072000000001    -0.113603500000000    -6.935189000000001
2 55
     0.170280500000000     0.004153500000000    -0.017582500000000
     0.007688500000000     0.128977500000000    -0.006135500000000
    -0.100038000000000     0.005388000000000     0.055415000000000
2 56
     0.649318000000000     0.383238500000000    -0.009108000000000
     0.322057500000000     0.370447000000000     0.023544000000000
    -0.486767000000000    -0.226175000000000    -0.097255500000000
2 57
    -0.498592000000000     0.011998000000000     1.114673499999999
     0.004745000000000    -0.476506000000000     0.013396000000000
     0.798785000000000    -0.013073000000000     0.397090500000000
2 58
     0.613184500000000    -0.343076500000000    -0.000986500000000
    -0.299902500000000     0.352458500000000    -0.000516500000000
    -0.465163500000000     0.215566000000000    -0.102617500000000
2 59
    -6.494196999999997    -0.069447000000000    -0.505212500000000
    -0.069578500000000    -1.098088500000000    -0.037011000000000
    -1.487063000000000    -0.030025500000000    -1.974759000000000
2 60
    -0.233620000000000    -0.003550500000000    -0.011918500000000
     0.025351000000000     0.209921500000000    -0.037601500000000
     0.074209500000000     0.021462000000000     0.107134000000000
3 1
    -0.416063000000000     0.006402000000000     0.014795500000000
    -0.006426500000000     0.091014500000000     0.000751000000000
     0.014812500000000    -0.000690500000000    -0.070990500000000
3 2
    -1.365583499999999    -0.026464000000000     0.059371000000000
    -0.026480000000000     0.041884000000000     0.002787500000000
    -0.059336500000000    -0.002854500000000     0.113870500000000
3 3
    15.493318999999993     0.227183500000000     3.808027999999998
     0.227205000000000     3.602810000000000    -0.170295000000000
     3.808966000000001    -0.170395500000000    10.478482000000001
3 4
    -0.085907000000000    -0.136362500000000     0.163462500000000
    -0.052835500000000    -0.139546500000000     0.054874500000000
     0.009945000000000    -0.010510500000000     0.215884500000000
3 5
    -0.161245500000000    -0.218247500000000    -0.119674000000000
    -0.049727500000000    -0.067760500000000    -0.033366000000000
    -0.074529000000000    -0.102025000000000    -0.116693000000000
3 6
    -0.156108500000000     0.212836000000000    -0.103457500000000
     0.041681000000000    -0.064605500000000     0.029945000000000
    -0.082058000000000     0.102671500000000    -0.109536500000000
3 7
    -0.056964000000000     0.105000000000000     0.168290500000000
     0.088111500000000    -0.118163500000000    -0.033544000000000
     0.019425500000000     0.033963500000000     0.172926500000000
3 8
     0.215870000000000     0.163467000000000    -0.054897000000000
     0.010001000000000    -0.085911000000000     0.052830000000000
     0.010505500000000     0.136376000000000    -0.139496500000000
3 9
    -0.067779000000000    -0.102004000000000    -0.218237000000000
    -0.033364000000000    -0.116761500000000    -0.119645000000000
    -0.049657500000000    -0.074545500000000    -0.161263500000000
3 10
    -0.064584000000000     0.102665000000000    -0.212811500000000
     0.029943500000000    -0.109454500000000     0.103485500000000
    -0.041756000000000     0.082077000000000    -0.156127500000000
3 11
     0.172918500000000    -0.168295500000000    -0.033511500000000
    -0.019359000000000    -0.056945500000000    -0.088108000000000
     0.033951500000000    -0.105008000000000    -0.118243500000000
3 12
     0.820280000000000    -0.002375000000000    -0.242060500000000
     0.002405000000000     0.161662000000000     0.002473000000000
     0.242050500000000     0.002393000000000    -0.663954500000000
3 13
    -0.221898500000000     0.003813000000000    -0.096805500000000
    -0.003786000000000    -0.041355000000000    -0.005739500000000
    -0.096820500000000     0.005657000000000    -0.086265500000000
3 14
    -0.220192500000000    -0.005908500000000     0.090623500000000
    -0.005883500000000    -0.039878000000000    -0.002796500000000
    -0.090635000000000     0.002882000000000     0.042323000000000
3 15
    -0.124729500000000    -0.007797500000000    -0.119089000000000
    -0.000570500000000     0.112890500000000     0.001488500000000
    -0.092468500000000    -0.007564500000000    -0.125074000000000
3 16
     0.183022000000000     0.015288500000000     0.102827000000000
     0.015256000000000    -0.186909500000000    -0.030667000000000
     0.102850000000000    -0.030746000000000     0.010032000000000
3 17
    -0.269906000000000     0.095591000000000    -0.075839000000000
     0.070560000000000     0.069001000000000    -0.001695000000000
    -0.084958500000000    -0.007108500000000     0.016602000000000
3 18
    -0.277656500000000    -0.084198500000000    -0.080128000000000
    -0.086260000000000     0.068331500000000     0.000817000000000
    -0.082957500000000     0.009239500000000     0.018114500000000
3 19
    -0.432604000000000    -0.437022000000000    -0.680508000000000
    -0.372588500000000     0.008361000000000    -0.332736500000000
    -0.619440500000000    -0.469693000000000    -0.332933000000000
3 20
    -0.421427000000000    -0.799469500000000    -0.411106000000000
    -0.727943500000000    -0.553793500000000    -0.483518500000000
    -0.545826500000000    -0.492523000000000    -0.042287500000000
3 21
     0.069019500000000    -0.007156500000000     0.095588500000000
    -0.001688500000000     0.016691500000000    -0.075879000000000
     0.070490000000000    -0.084981000000000    -0.269900500000000
3 22
     0.068286500000000     0.009291500000000     0.084200000000000
     0.000818500000000     0.018053000000000     0.080099000000000
     0.086358500000000     0.082970000000000    -0.277630000000000
3 23
    -0.332908000000000     0.680466500000000    -0.332763500000000
     0.619362500000000    -0.432625000000000     0.372578500000000
    -0.469670500000000     0.437010500000000     0.008451500000000
3 24
     0.173859000000000    -0.010041000000000    -0.092215500000000
     0.010034000000000    -0.045535500000000    -0.003550000000000
     0.092220000000000    -0.003467500000000    -0.102318000000000
3 25
    -0.099986000000000    -0.027332500000000     0.006722000000000
    -0.001572500000000    -0.308880500000000     0.000919500000000
    -0.100420500000000    -0.007389000000000     0.030236500000000
3 26
    -0.417594500000000    -0.223844500000000     0.763309000000000
    -0.460064500000000     0.161969000000000     0.409540000000000