phonopy:
  version: "2.21.2"
  frequency_unit_conversion_factor: 15.633302
  symmetry_tolerance: 1.00000e-05

space_group:
  type: "Pn-3"
  number: 201
  Hall_symbol: "P 2 2 3 -1n"

supercell_matrix:
- [   1,   0,   0 ]
- [   0,   1,   0 ]
- [   0,   0,   1 ]

primitive_cell:
  lattice:
  - [    10.098179180000001,     0.000000000000000,     0.000000000000000 ] # a
  - [     0.000000000000000,    10.098179180000001,     0.000000000000000 ] # b
  - [     0.000000000000000,     0.000000000000000,    10.098179180000001 ] # c
  points:
  - symbol: O  # 1
    coordinates: [  0.786951200000000,  0.503251950000000,  0.165932250000000 ]
    mass: 15.999400
  - symbol: O  # 2
    coordinates: [  0.786951200000000,  0.496748050000000,  0.834067750000000 ]
    mass: 15.999400
  - symbol: O  # 3
    coordinates: [  0.213048800000000,  0.503251950000000,  0.834067750000000 ]
    mass: 15.999400
  - symbol: O  # 4
    coordinates: [  0.496748050000000,  0.834067750000000,  0.786951200000000 ]
    mass: 15.999400
  - symbol: O  # 5
    coordinates: [  0.834067750000000,  0.213048800000000,  0.503251950000000 ]
    mass: 15.999400
  - symbol: O  # 6
    coordinates: [  0.834067750000000,  0.786951200000000,  0.496748050000000 ]
    mass: 15.999400
  - symbol: O  # 7
    coordinates: [  0.503251950000000,  0.165932250000000,  0.786951200000000 ]
    mass: 15.999400
  - symbol: O  # 8
    coordinates: [  0.165932250000000,  0.786951200000000,  0.503251950000000 ]
    mass: 15.999400
  - symbol: O  # 9
    coordinates: [  0.503251950000000,  0.834067750000000,  0.213048800000000 ]
    mass: 15.999400
  - symbol: O  # 10
    coordinates: [  0.496748050000000,  0.165932250000000,  0.213048800000000 ]
    mass: 15.999400
  - symbol: O  # 11
    coordinates: [  0.165932250000000,  0.213048800000000,  0.496748050000000 ]
    mass: 15.999400
  - symbol: O  # 12
    coordinates: [  0.213048800000000,  0.496748050000000,  0.165932250000000 ]
    mass: 15.999400
  - symbol: O  # 13
    coordinates: [  0.713048800000000,  0.996748050000000,  0.334067750000000 ]
    mass: 15.999400
  - symbol: O  # 14
    coordinates: [  0.713048800000000,  0.003251950000000,  0.665932250000000 ]
    mass: 15.999400
  - symbol: O  # 15
    coordinates: [  0.858939120000000,  0.500000000000000,  0.500000000000000 ]
    mass: 15.999400
  - symbol: O  # 16
    coordinates: [  0.286951200000000,  0.996748050000000,  0.665932250000000 ]
    mass: 15.999400
  - symbol: O  # 17
    coordinates: [  0.665932250000000,  0.286951200000000,  0.996748050000000 ]
    mass: 15.999400
  - symbol: O  # 18
    coordinates: [  0.665932250000000,  0.713048800000000,  0.003251950000000 ]
    mass: 15.999400
  - symbol: O  # 19
    coordinates: [  0.996748050000000,  0.334067750000000,  0.713048800000000 ]
    mass: 15.999400
  - symbol: O  # 20
    coordinates: [  0.334067750000000,  0.713048800000000,  0.996748050000000 ]
    mass: 15.999400
  - symbol: O  # 21
    coordinates: [  0.996748050000000,  0.665932250000000,  0.286951200000000 ]
    mass: 15.999400
  - symbol: O  # 22
    coordinates: [  0.003251950000000,  0.334067750000000,  0.286951200000000 ]
    mass: 15.999400
  - symbol: O  # 23
    coordinates: [  0.334067750000000,  0.286951200000000,  0.003251950000000 ]
    mass: 15.999400
  - symbol: O  # 24
    coordinates: [  0.286951200000000,  0.003251950000000,  0.334067750000000 ]
    mass: 15.999400
  - symbol: O  # 25
    coordinates: [  0.358939120000000,  0.000000000000000,  0.000000000000000 ]
    mass: 15.999400
  - symbol: O  # 26
    coordinates: [  0.000000000000000,  0.358939120000000,  0.000000000000000 ]
    mass: 15.999400
  - symbol: O  # 27
    coordinates: [  0.000000000000000,  0.000000000000000,  0.358939120000000 ]
    mass: 15.999400
  - symbol: O  # 28
    coordinates: [  0.000000000000000,  0.641060880000000,  0.000000000000000 ]
    mass: 15.999400
  - symbol: O  # 29
    coordinates: [  0.000000000000000,  0.000000000000000,  0.641060880000000 ]
    mass: 15.999400
  - symbol: O  # 30
    coordinates: [  0.641060880000000,  0.000000000000000,  0.000000000000000 ]
    mass: 15.999400
  - symbol: O  # 31
    coordinates: [  0.141060880000000,  0.500000000000000,  0.500000000000000 ]
    mass: 15.999400
  - symbol: O  # 32
    coordinates: [  0.500000000000000,  0.141060880000000,  0.500000000000000 ]
    mass: 15.999400
  - symbol: O  # 33
    coordinates: [  0.500000000000000,  0.500000000000000,  0.141060880000000 ]
    mass: 15.999400
  - symbol: O  # 34
    coordinates: [  0.500000000000000,  0.858939120000000,  0.500000000000000 ]
    mass: 15.999400
  - symbol: O  # 35
    coordinates: [  0.500000000000000,  0.500000000000000,  0.858939120000000 ]
    mass: 15.999400
  - symbol: O  # 36
    coordinates: [  0.003251950000000,  0.665932250000000,  0.713048800000000 ]
    mass: 15.999400
  - symbol: K  # 37
    coordinates: [  0.750000000000000,  0.750000000000000,  0.750000000000000 ]
    mass: 39.098300
  - symbol: K  # 38
    coordinates: [  0.250000000000000,  0.250000000000000,  0.750000000000000 ]
    mass: 39.098300
  - symbol: K  # 39
    coordinates: [  0.750000000000000,  0.250000000000000,  0.250000000000000 ]
    mass: 39.098300
  - symbol: K  # 40
    coordinates: [  0.250000000000000,  0.750000000000000,  0.250000000000000 ]
    mass: 39.098300
  - symbol: K  # 41
    coordinates: [  0.155312050000000,  0.155312050000000,  0.155312050000000 ]
    mass: 39.098300
  - symbol: K  # 42
    coordinates: [  0.844687950000000,  0.844687950000000,  0.155312050000000 ]
    mass: 39.098300
  - symbol: K  # 43
    coordinates: [  0.155312050000000,  0.844687950000000,  0.844687950000000 ]
    mass: 39.098300
  - symbol: K  # 44
    coordinates: [  0.844687950000000,  0.155312050000000,  0.844687950000000 ]
    mass: 39.098300
  - symbol: K  # 45
    coordinates: [  0.344687950000000,  0.344687950000000,  0.344687950000000 ]
    mass: 39.098300
  - symbol: K  # 46
    coordinates: [  0.655312050000000,  0.655312050000000,  0.344687950000000 ]
    mass: 39.098300
  - symbol: K  # 47
    coordinates: [  0.344687950000000,  0.655312050000000,  0.655312050000000 ]
    mass: 39.098300
  - symbol: K  # 48
    coordinates: [  0.655312050000000,  0.344687950000000,  0.655312050000000 ]
    mass: 39.098300
  - symbol: Bi # 49
    coordinates: [  0.340369470000000,  0.500000000000000,  0.000000000000000 ]
    mass: 208.980400
  - symbol: Bi # 50
    coordinates: [  0.000000000000000,  0.340369470000000,  0.500000000000000 ]
    mass: 208.980400
  - symbol: Bi # 51
    coordinates: [  0.500000000000000,  0.000000000000000,  0.340369470000000 ]
    mass: 208.980400
  - symbol: Bi # 52
    coordinates: [  0.000000000000000,  0.659630530000000,  0.500000000000000 ]
    mass: 208.980400
  - symbol: Bi # 53
    coordinates: [  0.500000000000000,  0.000000000000000,  0.659630530000000 ]
    mass: 208.980400
  - symbol: Bi # 54
    coordinates: [  0.659630530000000,  0.500000000000000,  0.000000000000000 ]
    mass: 208.980400
  - symbol: Bi # 55
    coordinates: [  0.159630530000000,  0.000000000000000,  0.500000000000000 ]
    mass: 208.980400
  - symbol: Bi # 56
    coordinates: [  0.500000000000000,  0.159630530000000,  0.000000000000000 ]
    mass: 208.980400
  - symbol: Bi # 57
    coordinates: [  0.000000000000000,  0.500000000000000,  0.159630530000000 ]
    mass: 208.980400
  - symbol: Bi # 58
    coordinates: [  0.500000000000000,  0.840369470000000,  0.000000000000000 ]
    mass: 208.980400
  - symbol: Bi # 59
    coordinates: [  0.000000000000000,  0.500000000000000,  0.840369470000000 ]
    mass: 208.980400
  - symbol: Bi # 60
    coordinates: [  0.840369470000000,  0.000000000000000,  0.500000000000000 ]
    mass: 208.980400
  reciprocal_lattice: # without 2pi
  - [     0.099027753635087,     0.000000000000000,     0.000000000000000 ] # a*
  - [     0.000000000000000,     0.099027753635087,     0.000000000000000 ] # b*
  - [     0.000000000000000,     0.000000000000000,     0.099027753635087 ] # c*

unit_cell:
  lattice:
  - [    10.098179180000001,    -0.000000000000000,     0.000000000000000 ] # a
  - [     0.000000000000000,    10.098179180000001,    -0.000000000000000 ] # b
  - [     0.000000000000000,     0.000000000000000,    10.098179180000001 ] # c
  points:
  - symbol: O  # 1
    coordinates: [  0.786951200000000,  0.503251950000000,  0.165932250000000 ]
    mass: 15.999400
    reduced_to: 1
  - symbol: O  # 2
    coordinates: [  0.786951200000000,  0.496748050000000,  0.834067750000000 ]
    mass: 15.999400
    reduced_to: 2
  - symbol: O  # 3
    coordinates: [  0.213048800000000,  0.503251950000000,  0.834067750000000 ]
    mass: 15.999400
    reduced_to: 3
  - symbol: O  # 4
    coordinates: [  0.496748050000000,  0.834067750000000,  0.786951200000000 ]
    mass: 15.999400
    reduced_to: 4
  - symbol: O  # 5
    coordinates: [  0.834067750000000,  0.213048800000000,  0.503251950000000 ]
    mass: 15.999400
    reduced_to: 5
  - symbol: O  # 6
    coordinates: [  0.834067750000000,  0.786951200000000,  0.496748050000000 ]
    mass: 15.999400
    reduced_to: 6
  - symbol: O  # 7
    coordinates: [  0.503251950000000,  0.165932250000000,  0.786951200000000 ]
    mass: 15.999400
    reduced_to: 7
  - symbol: O  # 8
    coordinates: [  0.165932250000000,  0.786951200000000,  0.503251950000000 ]
    mass: 15.999400
    reduced_to: 8
  - symbol: O  # 9
    coordinates: [  0.503251950000000,  0.834067750000000,  0.213048800000000 ]
    mass: 15.999400
    reduced_to: 9
  - symbol: O  # 10
    coordinates: [  0.496748050000000,  0.165932250000000,  0.213048800000000 ]
    mass: 15.999400
    reduced_to: 10
  - symbol: O  # 11
    coordinates: [  0.165932250000000,  0.213048800000000,  0.496748050000000 ]
    mass: 15.999400
    reduced_to: 11
  - symbol: O  # 12
    coordinates: [  0.213048800000000,  0.496748050000000,  0.165932250000000 ]
    mass: 15.999400
    reduced_to: 12
  - symbol: O  # 13
    coordinates: [  0.713048800000000,  0.996748050000000,  0.334067750000000 ]
    mass: 15.999400
    reduced_to: 13
  - symbol: O  # 14
    coordinates: [  0.713048800000000,  0.003251950000000,  0.665932250000000 ]
    mass: 15.999400
    reduced_to: 14
  - symbol: O  # 15
    coordinates: [  0.858939120000000,  0.500000000000000,  0.500000000000000 ]
    mass: 15.999400
    reduced_to: 15
  - symbol: O  # 16
    coordinates: [  0.286951200000000,  0.996748050000000,  0.665932250000000 ]
    mass: 15.999400
    reduced_to: 16
  - symbol: O  # 17
    coordinates: [  0.665932250000000,  0.286951200000000,  0.996748050000000 ]
    mass: 15.999400
    reduced_to: 17
  - symbol: O  # 18
    coordinates: [  0.665932250000000,  0.713048800000000,  0.003251950000000 ]
    mass: 15.999400
    reduced_to: 18
  - symbol: O  # 19
    coordinates: [  0.996748050000000,  0.334067750000000,  0.713048800000000 ]
    mass: 15.999400
    reduced_to: 19
  - symbol: O  # 20
    coordinates: [  0.334067750000000,  0.713048800000000,  0.996748050000000 ]
    mass: 15.999400
    reduced_to: 20
  - symbol: O  # 21
    coordinates: [  0.996748050000000,  0.665932250000000,  0.286951200000000 ]
    mass: 15.999400
    reduced_to: 21
  - symbol: O  # 22
    coordinates: [  0.003251950000000,  0.334067750000000,  0.286951200000000 ]
    mass: 15.999400
    reduced_to: 22
  - symbol: O  # 23
    coordinates: [  0.334067750000000,  0.286951200000000,  0.003251950000000 ]
    mass: 15.999400
    reduced_to: 23
  - symbol: O  # 24
    coordinates: [  0.286951200000000,  0.003251950000000,  0.334067750000000 ]
    mass: 15.999400
    reduced_to: 24
  - symbol: O  # 25
    coordinates: [  0.358939120000000,  0.000000000000000,  0.000000000000000 ]
    mass: 15.999400
    reduced_to: 25
  - symbol: O  # 26
    coordinates: [  0.000000000000000,  0.358939120000000,  0.000000000000000 ]
    mass: 15.999400
    reduced_to: 26
  - symbol: O  # 27
    coordinates: [  0.000000000000000,  0.000000000000000,  0.358939120000000 ]
    mass: 15.999400
    reduced_to: 27
  - symbol: O  # 28
    coordinates: [  0.000000000000000,  0.641060880000000,  0.000000000000000 ]
    mass: 15.999400
    reduced_to: 28
  - symbol: O  # 29
    coordinates: [  0.000000000000000,  0.000000000000000,  0.641060880000000 ]
    mass: 15.999400
    reduced_to: 29
  - symbol: O  # 30
    coordinates: [  0.641060880000000,  0.000000000000000,  0.000000000000000 ]
    mass: 15.999400
    reduced_to: 30
  - symbol: O  # 31
    coordinates: [  0.141060880000000,  0.500000000000000,  0.500000000000000 ]
    mass: 15.999400
    reduced_to: 31
  - symbol: O  # 32
    coordinates: [  0.500000000000000,  0.141060880000000,  0.500000000000000 ]
    mass: 15.999400
    reduced_to: 32
  - symbol: O  # 33
    coordinates: [  0.500000000000000,  0.500000000000000,  0.141060880000000 ]
    mass: 15.999400
    reduced_to: 33
  - symbol: O  # 34
    coordinates: [  0.500000000000000,  0.858939120000000,  0.500000000000000 ]
    mass: 15.999400
    reduced_to: 34
  - symbol: O  # 35
    coordinates: [  0.500000000000000,  0.500000000000000,  0.858939120000000 ]
    mass: 15.999400
    reduced_to: 35
  - symbol: O  # 36
    coordinates: [  0.003251950000000,  0.665932250000000,  0.713048800000000 ]
    mass: 15.999400
    reduced_to: 36
  - symbol: K  # 37
    coordinates: [  0.750000000000000,  0.750000000000000,  0.750000000000000 ]
    mass: 39.098300
    reduced_to: 37
  - symbol: K  # 38
    coordinates: [  0.250000000000000,  0.250000000000000,  0.750000000000000 ]
    mass: 39.098300
    reduced_to: 38
  - symbol: K  # 39
    coordinates: [  0.750000000000000,  0.250000000000000,  0.250000000000000 ]
    mass: 39.098300
    reduced_to: 39
  - symbol: K  # 40
    coordinates: [  0.250000000000000,  0.750000000000000,  0.250000000000000 ]
    mass: 39.098300
    reduced_to: 40
  - symbol: K  # 41
    coordinates: [  0.155312050000000,  0.155312050000000,  0.155312050000000 ]
    mass: 39.098300
    reduced_to: 41
  - symbol: K  # 42
    coordinates: [  0.844687950000000,  0.844687950000000,  0.155312050000000 ]
    mass: 39.098300
    reduced_to: 42
  - symbol: K  # 43
    coordinates: [  0.155312050000000,  0.844687950000000,  0.844687950000000 ]
    mass: 39.098300
    reduced_to: 43
  - symbol: K  # 44
    coordinates: [  0.844687950000000,  0.155312050000000,  0.844687950000000 ]
    mass: 39.098300
    reduced_to: 44
  - symbol: K  # 45
    coordinates: [  0.344687950000000,  0.344687950000000,  0.344687950000000 ]
    mass: 39.098300
    reduced_to: 45
  - symbol: K  # 46
    coordinates: [  0.655312050000000,  0.655312050000000,  0.344687950000000 ]
    mass: 39.098300
    reduced_to: 46
  - symbol: K  # 47
    coordinates: [  0.344687950000000,  0.655312050000000,  0.655312050000000 ]
    mass: 39.098300
    reduced_to: 47
  - symbol: K  # 48
    coordinates: [  0.655312050000000,  0.344687950000000,  0.655312050000000 ]
    mass: 39.098300
    reduced_to: 48
  - symbol: Bi # 49
    coordinates: [  0.340369470000000,  0.500000000000000,  0.000000000000000 ]
    mass: 208.980400
    reduced_to: 49
  - symbol: Bi # 50
    coordinates: [  0.000000000000000,  0.340369470000000,  0.500000000000000 ]
    mass: 208.980400
    reduced_to: 50
  - symbol: Bi # 51
    coordinates: [  0.500000000000000,  0.000000000000000,  0.340369470000000 ]
    mass: 208.980400
    reduced_to: 51
  - symbol: Bi # 52
    coordinates: [  0.000000000000000,  0.659630530000000,  0.500000000000000 ]
    mass: 208.980400
    reduced_to: 52
  - symbol: Bi # 53
    coordinates: [  0.500000000000000,  0.000000000000000,  0.659630530000000 ]
    mass: 208.980400
    reduced_to: 53
  - symbol: Bi # 54
    coordinates: [  0.659630530000000,  0.500000000000000,  0.000000000000000 ]
    mass: 208.980400
    reduced_to: 54
  - symbol: Bi # 55
    coordinates: [  0.159630530000000,  0.000000000000000,  0.500000000000000 ]
    mass: 208.980400
    reduced_to: 55
  - symbol: Bi # 56
    coordinates: [  0.500000000000000,  0.159630530000000,  0.000000000000000 ]
    mass: 208.980400
    reduced_to: 56
  - symbol: Bi # 57
    coordinates: [  0.000000000000000,  0.500000000000000,  0.159630530000000 ]
    mass: 208.980400
    reduced_to: 57
  - symbol: Bi # 58
    coordinates: [  0.500000000000000,  0.840369470000000,  0.000000000000000 ]
    mass: 208.980400
    reduced_to: 58
  - symbol: Bi # 59
    coordinates: [  0.000000000000000,  0.500000000000000,  0.840369470000000 ]
    mass: 208.980400
    reduced_to: 59
  - symbol: Bi # 60
    coordinates: [  0.840369470000000,  0.000000000000000,  0.500000000000000 ]
    mass: 208.980400
    reduced_to: 60

supercell:
  lattice:
  - [    10.098179180000001,     0.000000000000000,     0.000000000000000 ] # a
  - [     0.000000000000000,    10.098179180000001,     0.000000000000000 ] # b
  - [     0.000000000000000,     0.000000000000000,    10.098179180000001 ] # c
  points:
  - symbol: O  # 1
    coordinates: [  0.786951200000000,  0.503251950000000,  0.165932250000000 ]
    mass: 15.999400
    reduced_to: 1
  - symbol: O  # 2
    coordinates: [  0.786951200000000,  0.496748050000000,  0.834067750000000 ]
    mass: 15.999400
    reduced_to: 2
  - symbol: O  # 3
    coordinates: [  0.213048800000000,  0.503251950000000,  0.834067750000000 ]
    mass: 15.999400
    reduced_to: 3
  - symbol: O  # 4
    coordinates: [  0.496748050000000,  0.834067750000000,  0.786951200000000 ]
    mass: 15.999400
    reduced_to: 4
  - symbol: O  # 5
    coordinates: [  0.834067750000000,  0.213048800000000,  0.503251950000000 ]
    mass: 15.999400
    reduced_to: 5
  - symbol: O  # 6
    coordinates: [  0.834067750000000,  0.786951200000000,  0.496748050000000 ]
    mass: 15.999400
    reduced_to: 6
  - symbol: O  # 7
    coordinates: [  0.503251950000000,  0.165932250000000,  0.786951200000000 ]
    mass: 15.999400
    reduced_to: 7
  - symbol: O  # 8
    coordinates: [  0.165932250000000,  0.786951200000000,  0.503251950000000 ]
    mass: 15.999400
    reduced_to: 8
  - symbol: O  # 9
    coordinates: [  0.503251950000000,  0.834067750000000,  0.213048800000000 ]
    mass: 15.999400
    reduced_to: 9
  - symbol: O  # 10
    coordinates: [  0.496748050000000,  0.165932250000000,  0.213048800000000 ]
    mass: 15.999400
    reduced_to: 10
  - symbol: O  # 11
    coordinates: [  0.165932250000000,  0.213048800000000,  0.496748050000000 ]
    mass: 15.999400
    reduced_to: 11
  - symbol: O  # 12
    coordinates: [  0.213048800000000,  0.496748050000000,  0.165932250000000 ]
    mass: 15.999400
    reduced_to: 12
  - symbol: O  # 13
    coordinates: [  0.713048800000000,  0.996748050000000,  0.334067750000000 ]
    mass: 15.999400
    reduced_to: 13
  - symbol: O  # 14
    coordinates: [  0.713048800000000,  0.003251950000000,  0.665932250000000 ]
    mass: 15.999400
    reduced_to: 14
  - symbol: O  # 15
    coordinates: [  0.858939120000000,  0.500000000000000,  0.500000000000000 ]
    mass: 15.999400
    reduced_to: 15
  - symbol: O  # 16
    coordinates: [  0.286951200000000,  0.996748050000000,  0.665932250000000 ]
    mass: 15.999400
    reduced_to: 16
  - symbol: O  # 17
    coordinates: [  0.665932250000000,  0.286951200000000,  0.996748050000000 ]
    mass: 15.999400
    reduced_to: 17
  - symbol: O  # 18
    coordinates: [  0.665932250000000,  0.713048800000000,  0.003251950000000 ]
    mass: 15.999400
    reduced_to: 18
  - symbol: O  # 19
    coordinates: [  0.996748050000000,  0.334067750000000,  0.713048800000000 ]
    mass: 15.999400
    reduced_to: 19
  - symbol: O  # 20
    coordinates: [  0.334067750000000,  0.713048800000000,  0.996748050000000 ]
    mass: 15.999400
    reduced_to: 20
  - symbol: O  # 21
    coordinates: [  0.996748050000000,  0.665932250000000,  0.286951200000000 ]
    mass: 15.999400
    reduced_to: 21
  - symbol: O  # 22
    coordinates: [  0.003251950000000,  0.334067750000000,  0.286951200000000 ]
    mass: 15.999400
    reduced_to: 22
  - symbol: O  # 23
    coordinates: [  0.334067750000000,  0.286951200000000,  0.003251950000000 ]
    mass: 15.999400
    reduced_to: 23
  - symbol: O  # 24
    coordinates: [  0.286951200000000,  0.003251950000000,  0.334067750000000 ]
    mass: 15.999400
    reduced_to: 24
  - symbol: O  # 25
    coordinates: [  0.358939120000000,  0.000000000000000,  0.000000000000000 ]
    mass: 15.999400
    reduced_to: 25
  - symbol: O  # 26
    coordinates: [  0.000000000000000,  0.358939120000000,  0.000000000000000 ]
    mass: 15.999400
    reduced_to: 26
  - symbol: O  # 27
    coordinates: [  0.000000000000000,  0.000000000000000,  0.358939120000000 ]
    mass: 15.999400
    reduced_to: 27
  - symbol: O  # 28
    coordinates: [  0.000000000000000,  0.641060880000000,  0.000000000000000 ]
    mass: 15.999400
    reduced_to: 28
  - symbol: O  # 29
    coordinates: [  0.000000000000000,  0.000000000000000,  0.641060880000000 ]
    mass: 15.999400
    reduced_to: 29
  - symbol: O  # 30
    coordinates: [  0.641060880000000,  0.000000000000000,  0.000000000000000 ]
    mass: 15.999400
    reduced_to: 30
  - symbol: O  # 31
    coordinates: [  0.141060880000000,  0.500000000000000,  0.500000000000000 ]
    mass: 15.999400
    reduced_to: 31
  - symbol: O  # 32
    coordinates: [  0.500000000000000,  0.141060880000000,  0.500000000000000 ]
    mass: 15.999400
    reduced_to: 32
  - symbol: O  # 33
    coordinates: [  0.500000000000000,  0.500000000000000,  0.141060880000000 ]
    mass: 15.999400
    reduced_to: 33
  - symbol: O  # 34
    coordinates: [  0.500000000000000,  0.858939120000000,  0.500000000000000 ]
    mass: 15.999400
    reduced_to: 34
  - symbol: O  # 35
    coordinates: [  0.500000000000000,  0.500000000000000,  0.858939120000000 ]
    mass: 15.999400
    reduced_to: 35
  - symbol: O  # 36
    coordinates: [  0.003251950000000,  0.665932250000000,  0.713048800000000 ]
    mass: 15.999400
    reduced_to: 36
  - symbol: K  # 37
    coordinates: [  0.750000000000000,  0.750000000000000,  0.750000000000000 ]
    mass: 39.098300
    reduced_to: 37
  - symbol: K  # 38
    coordinates: [  0.250000000000000,  0.250000000000000,  0.750000000000000 ]
    mass: 39.098300
    reduced_to: 38
  - symbol: K  # 39
    coordinates: [  0.750000000000000,  0.250000000000000,  0.250000000000000 ]
    mass: 39.098300
    reduced_to: 39
  - symbol: K  # 40
    coordinates: [  0.250000000000000,  0.750000000000000,  0.250000000000000 ]
    mass: 39.098300
    reduced_to: 40
  - symbol: K  # 41
    coordinates: [  0.155312050000000,  0.155312050000000,  0.155312050000000 ]
    mass: 39.098300
    reduced_to: 41
  - symbol: K  # 42
    coordinates: [  0.844687950000000,  0.844687950000000,  0.155312050000000 ]
    mass: 39.098300
    reduced_to: 42
  - symbol: K  # 43
    coordinates: [  0.155312050000000,  0.844687950000000,  0.844687950000000 ]
    mass: 39.098300
    reduced_to: 43
  - symbol: K  # 44
    coordinates: [  0.844687950000000,  0.155312050000000,  0.844687950000000 ]
    mass: 39.098300
    reduced_to: 44
  - symbol: K  # 45
    coordinates: [  0.344687950000000,  0.344687950000000,  0.344687950000000 ]
    mass: 39.098300
    reduced_to: 45
  - symbol: K  # 46
    coordinates: [  0.655312050000000,  0.655312050000000,  0.344687950000000 ]
    mass: 39.098300
    reduced_to: 46
  - symbol: K  # 47
    coordinates: [  0.344687950000000,  0.655312050000000,  0.655312050000000 ]
    mass: 39.098300
    reduced_to: 47
  - symbol: K  # 48
    coordinates: [  0.655312050000000,  0.344687950000000,  0.655312050000000 ]
    mass: 39.098300
    reduced_to: 48
  - symbol: Bi # 49
    coordinates: [  0.340369470000000,  0.500000000000000,  0.000000000000000 ]
    mass: 208.980400
    reduced_to: 49
  - symbol: Bi # 50
    coordinates: [  0.000000000000000,  0.340369470000000,  0.500000000000000 ]
    mass: 208.980400
    reduced_to: 50
  - symbol: Bi # 51
    coordinates: [  0.500000000000000,  0.000000000000000,  0.340369470000000 ]
    mass: 208.980400
    reduced_to: 51
  - symbol: Bi # 52
    coordinates: [  0.000000000000000,  0.659630530000000,  0.500000000000000 ]
    mass: 208.980400
    reduced_to: 52
  - symbol: Bi # 53
    coordinates: [  0.500000000000000,  0.000000000000000,  0.659630530000000 ]
    mass: 208.980400
    reduced_to: 53
  - symbol: Bi # 54
    coordinates: [  0.659630530000000,  0.500000000000000,  0.000000000000000 ]
    mass: 208.980400
    reduced_to: 54
  - symbol: Bi # 55
    coordinates: [  0.159630530000000,  0.000000000000000,  0.500000000000000 ]
    mass: 208.980400
    reduced_to: 55
  - symbol: Bi # 56
    coordinates: [  0.500000000000000,  0.159630530000000,  0.000000000000000 ]
    mass: 208.980400
    reduced_to: 56
  - symbol: Bi # 57
    coordinates: [  0.000000000000000,  0.500000000000000,  0.159630530000000 ]
    mass: 208.980400
    reduced_to: 57
  - symbol: Bi # 58
    coordinates: [  0.500000000000000,  0.840369470000000,  0.000000000000000 ]
    mass: 208.980400
    reduced_to: 58
  - symbol: Bi # 59
    coordinates: [  0.000000000000000,  0.500000000000000,  0.840369470000000 ]
    mass: 208.980400
    reduced_to: 59
  - symbol: Bi # 60
    coordinates: [  0.840369470000000,  0.000000000000000,  0.500000000000000 ]
    mass: 208.980400
    reduced_to: 60

displacements:
- atom:    1
  displacement:
    [   0.0100000000000000,  0.0000000000000000,  0.0000000000000000 ]
  forces:
  - [  -0.1569484800000000,  0.0022608300000000, -0.0371230900000000 ]
  - [  -0.0082197300000000, -0.0000241600000000,  0.0024460200000000 ]
  - [   0.0041718800000000,  0.0000640900000000, -0.0001465000000000 ]
  - [   0.0006810700000000, -0.0010227300000000,  0.0021865000000000 ]
  - [  -0.0017385100000000, -0.0016864700000000,  0.0003366900000000 ]
  - [  -0.0021682400000000,  0.0016390300000000,  0.0005514900000000 ]
  - [   0.0006497700000000,  0.0010297000000000,  0.0021326800000000 ]
  - [   0.0015672100000000,  0.0021353400000000,  0.0010395900000000 ]
  - [   0.0008645100000000, -0.0013671500000000, -0.0016365600000000 ]
  - [   0.0005746000000000,  0.0010517900000000, -0.0016848700000000 ]
  - [   0.0016185300000000, -0.0021894500000000,  0.0012010200000000 ]
  - [   0.0136351100000000, -0.0002651700000000, -0.0005826400000000 ]
  - [  -0.0018320400000000,  0.0001565500000000, -0.0010337900000000 ]
  - [  -0.0017415600000000, -0.0001009400000000,  0.0009247000000000 ]
  - [  -0.0018499200000000,  0.0000360400000000,  0.0021510900000000 ]
  - [   0.0022242300000000,  0.0000380400000000,  0.0009711600000000 ]
  - [   0.0033598200000000,  0.0067994600000000,  0.0033249700000000 ]
  - [   0.0042493000000000, -0.0079876200000000,  0.0041093900000000 ]
  - [  -0.0006904400000000,  0.0000958600000000, -0.0008426900000000 ]
  - [   0.0027852400000000, -0.0008234100000000,  0.0007982000000000 ]
  - [   0.0055654900000000,  0.0050000400000000,  0.0080725700000000 ]
  - [   0.0043512600000000, -0.0044377300000000,  0.0068766300000000 ]
  - [   0.0027072300000000,  0.0009378500000000,  0.0007565600000000 ]
  - [   0.0022067500000000, -0.0000593300000000, -0.0009079600000000 ]
  - [   0.0011925400000000, -0.0000453000000000,  0.0000643900000000 ]
  - [   0.0041773700000000, -0.0022712000000000, -0.0077013300000000 ]
  - [  -0.0003043400000000,  0.0000218700000000,  0.0001520500000000 ]
  - [   0.0047453100000000,  0.0024267100000000, -0.0081018400000000 ]
  - [  -0.0002697000000000,  0.0000087000000000,  0.0005614500000000 ]
  - [   0.0010013900000000, -0.0002737700000000, -0.0000668500000000 ]
  - [   0.0012440600000000, -0.0000780900000000,  0.0011974500000000 ]
  - [   0.0001181900000000,  0.0002533400000000, -0.0000194200000000 ]
  - [   0.0192453700000000,  0.0001419800000000,  0.0066350000000000 ]
  - [   0.0002813600000000, -0.0006210300000000, -0.0002789800000000 ]
  - [   0.0021085000000000,  0.0000760800000000,  0.0049457200000000 ]
  - [  -0.0006964500000000, -0.0000747900000000, -0.0009578400000000 ]
  - [   0.0011062100000000,  0.0001752600000000, -0.0008267400000000 ]
  - [  -0.0010253200000000,  0.0003329800000000, -0.0001624200000000 ]
  - [   0.0027678500000000,  0.0011819400000000,  0.0008044500000000 ]
  - [  -0.0020108100000000, -0.0000264500000000,  0.0006010100000000 ]
  - [  -0.0014729200000000,  0.0007899600000000,  0.0003052000000000 ]
  - [   0.0024432400000000, -0.0008943200000000,  0.0006207500000000 ]
  - [  -0.0010350300000000, -0.0007053000000000,  0.0001763600000000 ]
  - [   0.0015752900000000,  0.0003540500000000, -0.0002458900000000 ]
  - [  -0.0018823800000000, -0.0005580400000000,  0.0010438500000000 ]
  - [   0.0044585000000000, -0.0014949500000000, -0.0015973500000000 ]
  - [  -0.0009873000000000, -0.0001773000000000, -0.0002890100000000 ]
  - [   0.0005408500000000, -0.0002177100000000, -0.0006916400000000 ]
  - [  -0.0137227700000000, -0.0001720000000000, -0.0087487000000000 ]
  - [   0.0009337200000000,  0.0012106400000000, -0.0074822000000000 ]
  - [  -0.0005189200000000,  0.0002987900000000,  0.0019821900000000 ]
  - [   0.0008316600000000, -0.0011286100000000, -0.0078010900000000 ]
  - [  -0.0003051900000000,  0.0001423200000000, -0.0016128500000000 ]
  - [   0.0389096300000000,  0.0002536800000000,  0.0278799600000000 ]
  - [  -0.0017070300000000,  0.0000411700000000, -0.0001779700000000 ]
  - [  -0.0061635500000000, -0.0034346100000000, -0.0000083900000000 ]
  - [   0.0675383600000000, -0.0007391600000000, -0.0050867600000000 ]
  - [  -0.0065250600000000,  0.0038374600000000, -0.0000900600000000 ]
  - [   0.0050396500000000,  0.0001220300000000,  0.0111739900000000 ]
  - [   0.0023446500000000, -0.0000367800000000, -0.0001176400000000 ]
- atom:    1
  displacement:
    [  -0.0100000000000000,  0.0000000000000000,  0.0000000000000000 ]
  forces:
  - [   0.1529179000000000, -0.0022828400000000,  0.0390374700000000 ]
  - [   0.0081858700000000,  0.0000233400000000, -0.0023951900000000 ]
  - [  -0.0041493800000000, -0.0000639500000000,  0.0001494100000000 ]